VARIABLES = "x", "y", "ux1_r" , "ux1_i" ,"uy1_r" , "uy1_i" ,"p1_r" , "p1_i" ,"vort1_r" , "vort1_i" 
ZONE F=FEPOINT,ET=TRIANGLE,N=5257,E= 10146
 13.09668012   0.00000000  -0.00000000  -0.00000000  -0.00001589  -0.00000886  -0.00000000  -0.00000000   0.00005141  -0.00000900 
 11.52049398   0.00000000   0.00000000  -0.00000000   0.00001136  -0.00000016  -0.00000000   0.00000000   0.00000428   0.00004432 
 12.64902446   0.00000000  -0.00000000  -0.00000000  -0.00000590  -0.00001027   0.00000000   0.00000000   0.00004529   0.00001351 
 12.79824301   0.00000000  -0.00000000  -0.00000000  -0.00000915  -0.00001023   0.00000000   0.00000000   0.00004829   0.00000653 
 12.49980591   0.00000000  -0.00000000  -0.00000000  -0.00000280  -0.00000991  -0.00000000   0.00000000   0.00004155   0.00002004 
 11.92504153   0.00000000   0.00000000  -0.00000000   0.00000706  -0.00000540  -0.00000000   0.00000000   0.00002147   0.00003861 
 12.94746157   0.00000000  -0.00000000  -0.00000000  -0.00001250  -0.00000976  -0.00000000  -0.00000000   0.00005040  -0.00000099 
 13.24589868   0.00000000  -0.00000000  -0.00000000  -0.00001928  -0.00000750   0.00000000   0.00000000   0.00005169  -0.00001721 
 13.12402664   0.07474858   0.00000214  -0.00000018  -0.00001652  -0.00000855   0.00000046   0.00000049   0.00005112  -0.00001058 
 11.43149758   0.07302460  -0.00000042   0.00000219   0.00001191   0.00000111   0.00000041   0.00000001   0.00000050   0.00004429 
 11.38850087   0.00000000   0.00000000  -0.00000000   0.00001223   0.00000174  -0.00000000   0.00000000  -0.00000144   0.00004484 
 11.53568103   0.08837000  -0.00000025   0.00000263   0.00001114  -0.00000037   0.00000048   0.00000004   0.00000499   0.00004362 
 11.65248708   0.00000000   0.00000000  -0.00000000   0.00001022  -0.00000199  -0.00000000   0.00000000   0.00001001   0.00004316 
 12.70247127   0.08335251   0.00000205   0.00000090  -0.00000710  -0.00001020   0.00000042   0.00000039   0.00004600   0.00001088 
 12.54703729   0.09450613   0.00000208   0.00000142  -0.00000384  -0.00000995   0.00000046   0.00000038   0.00004229   0.00001779 
 12.83802071   0.07257405   0.00000191   0.00000050  -0.00001006  -0.00001007   0.00000039   0.00000039   0.00004844   0.00000433 
 12.40336910   0.07701863   0.00000148   0.00000143  -0.00000095  -0.00000941   0.00000036   0.00000026   0.00003840   0.00002359 
 12.35255275   0.00000000   0.00000000  -0.00000000   0.00000008  -0.00000919  -0.00000000   0.00000000   0.00003720   0.00002588 
 12.06447353   0.00000000   0.00000000  -0.00000000   0.00000503  -0.00000688  -0.00000000   0.00000000   0.00002703   0.00003516 
 11.96588680   0.07457642   0.00000066   0.00000197   0.00000642  -0.00000582   0.00000036   0.00000013   0.00002296   0.00003713 
 11.78788114   0.00000000   0.00000000  -0.00000000   0.00000879  -0.00000376  -0.00000000   0.00000000   0.00001577   0.00004132 
 11.83533885   0.09699200   0.00000052   0.00000270   0.00000809  -0.00000430   0.00000048   0.00000012   0.00001759   0.00003965 
 12.96383442   0.10312515   0.00000283   0.00000030  -0.00001291  -0.00000952   0.00000059   0.00000061   0.00004976  -0.00000201 
 10.47227043   0.00000000   0.00000000  -0.00000000   0.00001131   0.00001456  -0.00000000  -0.00000000  -0.00003591   0.00003221 
 12.20746746   0.00000000   0.00000000  -0.00000000   0.00000269  -0.00000816  -0.00000000  -0.00000000   0.00003226   0.00003086 
 11.25650777   0.00000000   0.00000000  -0.00000000   0.00001284   0.00000369  -0.00000000   0.00000000  -0.00000710   0.00004472 
 10.86098275   0.00000000   0.00000000  -0.00000000   0.00001311   0.00000948   0.00000000  -0.00000000  -0.00002296   0.00004070 
 10.60184121   0.00000000   0.00000000  -0.00000000   0.00001211   0.00001297  -0.00000000  -0.00000000  -0.00003198   0.00003547 
 10.73141198   0.00000000   0.00000000  -0.00000000   0.00001272   0.00001127   0.00000000  -0.00000000  -0.00002769   0.00003836 
 13.39508908   0.00000000  -0.00000000  -0.00000000  -0.00002259  -0.00000567  -0.00000000  -0.00000000   0.00005080  -0.00002557 
 13.30915875   0.07868971   0.00000227  -0.00000068  -0.00002069  -0.00000667   0.00000055   0.00000058   0.00005092  -0.00002067 
 13.08689668   0.15991348   0.00000448  -0.00000018  -0.00001573  -0.00000851   0.00000098   0.00000103   0.00004951  -0.00000855 
 13.24569687   0.14647630   0.00000418  -0.00000094  -0.00001928  -0.00000713   0.00000099   0.00000104   0.00004998  -0.00001699 
 11.43406334   0.16331279  -0.00000092   0.00000481   0.00001160   0.00000108   0.00000093   0.00000004   0.00000084   0.00004261 
 11.31479019   0.08832697  -0.00000079   0.00000263   0.00001250   0.00000281   0.00000053  -0.00000000  -0.00000445   0.00004419 
 11.55028450   0.16225633  -0.00000040   0.00000476   0.00001076  -0.00000054   0.00000088   0.00000008   0.00000571   0.00004186 
 11.66731244   0.09299874   0.00000007   0.00000272   0.00000996  -0.00000217   0.00000048   0.00000007   0.00001061   0.00004222 
 12.67535502   0.15238131   0.00000363   0.00000174  -0.00000664  -0.00000997   0.00000077   0.00000070   0.00004436   0.00001156 
 12.82047601   0.15460616   0.00000398   0.00000112  -0.00000979  -0.00000983   0.00000083   0.00000082   0.00004692   0.00000477 
 12.40472355   0.15839456   0.00000301   0.00000289  -0.00000117  -0.00000920   0.00000076   0.00000054   0.00003746   0.00002258 
 12.56154208   0.18159351   0.00000396   0.00000261  -0.00000435  -0.00000968   0.00000090   0.00000075   0.00004117   0.00001602 
 12.27110405   0.10670465   0.00000174   0.00000227   0.00000145  -0.00000854   0.00000050   0.00000030   0.00003397   0.00002807 
 12.15031111   0.07983990   0.00000108   0.00000189   0.00000358  -0.00000763   0.00000037   0.00000019   0.00002995   0.00003222 
 12.05830153   0.12085921   0.00000135   0.00000302   0.00000494  -0.00000671   0.00000057   0.00000024   0.00002628   0.00003434 
 11.95330945   0.15702069   0.00000132   0.00000412   0.00000634  -0.00000556   0.00000076   0.00000026   0.00002196   0.00003607 
 11.73941307   0.15478616   0.00000042   0.00000439   0.00000900  -0.00000305   0.00000079   0.00000015   0.00001347   0.00004008 
 11.83852744   0.18926395   0.00000101   0.00000516   0.00000770  -0.00000421   0.00000095   0.00000025   0.00001728   0.00003754 
 12.94461366   0.18724794   0.00000502   0.00000064  -0.00001259  -0.00000923   0.00000107   0.00000109   0.00004769  -0.00000146 
 10.38590611   0.08500864  -0.00000257   0.00000158   0.00001061   0.00001548   0.00000070   0.00000001  -0.00003768   0.00002942 
 10.52697887   0.08783099  -0.00000243   0.00000186   0.00001160   0.00001383   0.00000070  -0.00000001  -0.00003375   0.00003318 
 10.34269966   0.00000000   0.00000000  -0.00000000   0.00001032   0.00001602  -0.00000000  -0.00000000  -0.00003949   0.00002860 
 11.16874293   0.08129791  -0.00000105   0.00000237   0.00001301   0.00000497   0.00000051  -0.00000002  -0.00001056   0.00004375 
 11.12451466   0.00000000   0.00000000  -0.00000000   0.00001318   0.00000564  -0.00000000   0.00000000  -0.00001257   0.00004393 
 10.93533072   0.07255551  -0.00000137   0.00000197   0.00001316   0.00000839   0.00000050  -0.00000002  -0.00001989   0.00004140 
 10.99252155   0.00000000   0.00000000  -0.00000000   0.00001327   0.00000759   0.00000000  -0.00000000  -0.00001793   0.00004264 
 10.81827878   0.08369183  -0.00000181   0.00000216   0.00001292   0.00001003   0.00000061  -0.00000003  -0.00002413   0.00003947 
 10.64504168   0.06493269  -0.00000165   0.00000151   0.00001229   0.00001238   0.00000050  -0.00000002  -0.00003028   0.00003615 
 10.72288960   0.10484617  -0.00000248   0.00000255   0.00001256   0.00001130   0.00000078  -0.00000003  -0.00002721   0.00003735 
  9.82981680   0.00000000   0.00000000  -0.00000000   0.00000503   0.00002023  -0.00000000   0.00000000  -0.00004858   0.00001160 
 10.21312889   0.00000000   0.00000000  -0.00000000   0.00000918   0.00001733   0.00000000   0.00000000  -0.00004248   0.00002461 
 10.08502906   0.00000000   0.00000000  -0.00000000   0.00000790   0.00001847  -0.00000000  -0.00000000  -0.00004502   0.00002046 
  9.19305211   0.00000000   0.00000000   0.00000000  -0.00000306   0.00002142  -0.00000000   0.00000000  -0.00004924  -0.00001107 
  9.95742293   0.00000000   0.00000000  -0.00000000   0.00000652   0.00001944  -0.00000000  -0.00000000  -0.00004713   0.00001610 
  9.06591829   0.00000000   0.00000000   0.00000000  -0.00000466   0.00002112  -0.00000000   0.00000000  -0.00004799  -0.00001539 
  8.93878447   0.00000000   0.00000000   0.00000000  -0.00000623   0.00002065  -0.00000000   0.00000000  -0.00004624  -0.00001938 
 11.93192576   0.22537553   0.00000174   0.00000585   0.00000630  -0.00000517   0.00000111   0.00000037   0.00002054   0.00003471 
 12.46703312   0.22188039   0.00000440   0.00000366  -0.00000261  -0.00000919   0.00000108   0.00000083   0.00003784   0.00001904 
 10.14734424   0.06973463  -0.00000235   0.00000094   0.00000851   0.00001788   0.00000061   0.00000004  -0.00004341   0.00002228 
 13.47423974   0.08140509   0.00000230  -0.00000118  -0.00002428  -0.00000440   0.00000063   0.00000065   0.00004936  -0.00002981 
 13.54246573   0.00000000  -0.00000000   0.00000000  -0.00002574  -0.00000341  -0.00000000  -0.00000000   0.00004889  -0.00003381 
 13.41492815   0.15038313   0.00000424  -0.00000184  -0.00002298  -0.00000500   0.00000113   0.00000117   0.00004885  -0.00002615 
 13.04438215   0.23807884   0.00000646   0.00000006  -0.00001487  -0.00000831   0.00000145   0.00000149   0.00004692  -0.00000659 
 13.20217720   0.21877018   0.00000611  -0.00000107  -0.00001833  -0.00000714   0.00000145   0.00000152   0.00004802  -0.00001454 
 13.35901786   0.21269005   0.00000594  -0.00000216  -0.00002174  -0.00000537   0.00000155   0.00000161   0.00004759  -0.00002271 
 11.41697218   0.25673301  -0.00000152   0.00000734   0.00001117   0.00000132   0.00000148   0.00000008   0.00000078   0.00003951 
 11.53519203   0.24300764  -0.00000068   0.00000695   0.00001044  -0.00000030   0.00000134   0.00000013   0.00000526   0.00003950 
 11.32278292   0.18817590  -0.00000162   0.00000548   0.00001209   0.00000266   0.00000112   0.00000001  -0.00000352   0.00004197 
 11.22424911   0.14841706  -0.00000168   0.00000432   0.00001265   0.00000411   0.00000092  -0.00000001  -0.00000778   0.00004273 
 11.64098000   0.19915410   0.00000001   0.00000571   0.00000979  -0.00000173   0.00000105   0.00000015   0.00000939   0.00004013 
 12.71371460   0.22135355   0.00000529   0.00000225  -0.00000764  -0.00000961   0.00000116   0.00000106   0.00004348   0.00000908 
 12.87257236   0.24359889   0.00000625   0.00000135  -0.00001112  -0.00000915   0.00000136   0.00000134   0.00004520   0.00000154 
 12.26790208   0.20544320   0.00000326   0.00000428   0.00000116  -0.00000821   0.00000098   0.00000059   0.00003247   0.00002643 
 12.35142327   0.24043124   0.00000419   0.00000455  -0.00000051  -0.00000856   0.00000116   0.00000078   0.00003426   0.00002276 
 12.57604789   0.26025891   0.00000559   0.00000355  -0.00000494  -0.00000927   0.00000132   0.00000110   0.00003947   0.00001405 
 12.15543255   0.17366086   0.00000233   0.00000402   0.00000321  -0.00000746   0.00000082   0.00000042   0.00002921   0.00003053 
 12.04677633   0.22018107   0.00000233   0.00000540   0.00000469  -0.00000635   0.00000106   0.00000045   0.00002480   0.00003232 
 11.73273670   0.23166206   0.00000057   0.00000644   0.00000868  -0.00000286   0.00000120   0.00000024   0.00001296   0.00003789 
 11.81736231   0.26698763   0.00000124   0.00000714   0.00000749  -0.00000380   0.00000135   0.00000035   0.00001595   0.00003535 
 10.25805119   0.10717900  -0.00000343   0.00000170   0.00000951   0.00001677   0.00000092   0.00000003  -0.00004054   0.00002549 
 10.44302011   0.15316638  -0.00000442   0.00000297   0.00001090   0.00001468   0.00000124   0.00000000  -0.00003488   0.00003009 
 10.33468617   0.18213203  -0.00000553   0.00000312   0.00001000   0.00001577   0.00000152   0.00000004  -0.00003684   0.00002672 
 10.53659536   0.18508193  -0.00000499   0.00000387   0.00001141   0.00001348   0.00000146  -0.00000002  -0.00003148   0.00003181 
 10.63316297   0.14774868  -0.00000375   0.00000336   0.00001205   0.00001239   0.00000114  -0.00000003  -0.00002946   0.00003479 
 11.11340028   0.17407456  -0.00000246   0.00000492   0.00001281   0.00000570   0.00000112  -0.00000003  -0.00001200   0.00004150 
 11.03821101   0.10510530  -0.00000171   0.00000295   0.00001313   0.00000687   0.00000070  -0.00000003  -0.00001571   0.00004236 
 10.90564149   0.15307554  -0.00000296   0.00000405   0.00001291   0.00000871   0.00000107  -0.00000005  -0.00002010   0.00003968 
 10.77286838   0.17555983  -0.00000391   0.00000433   0.00001252   0.00001049   0.00000128  -0.00000005  -0.00002439   0.00003700 
  9.70221068   0.00000000   0.00000000   0.00000000   0.00000348   0.00002084   0.00000000   0.00000000  -0.00004970   0.00000706 
  9.83257432   0.07009556  -0.00000255   0.00000043   0.00000505   0.00002015   0.00000065   0.00000010  -0.00004820   0.00001161 
  9.99954153   0.08026180  -0.00000282   0.00000081   0.00000696   0.00001906   0.00000072   0.00000007  -0.00004582   0.00001741 
  9.18310727   0.07323381  -0.00000264  -0.00000070  -0.00000316   0.00002134   0.00000068   0.00000027  -0.00004856  -0.00001132 
  9.29665204   0.09523280  -0.00000348  -0.00000065  -0.00000170   0.00002143   0.00000089   0.00000031  -0.00004895  -0.00000731 
  9.32018593   0.00000000   0.00000000   0.00000000  -0.00000142   0.00002155   0.00000000   0.00000000  -0.00005013  -0.00000667 
  9.03349698   0.06821557  -0.00000238  -0.00000088  -0.00000505   0.00002097   0.00000062   0.00000028  -0.00004706  -0.00001618 
  8.81379942   0.00000000   0.00000000   0.00000000  -0.00000770   0.00002004   0.00000000   0.00000000  -0.00004425  -0.00002315 
  8.88505002   0.07270990  -0.00000242  -0.00000117  -0.00000684   0.00002035   0.00000064   0.00000034  -0.00004491  -0.00002079 
 11.93516537   0.28564745   0.00000217   0.00000723   0.00000587  -0.00000502   0.00000142   0.00000049   0.00002001   0.00003257 
 12.42647242   0.28419707   0.00000529   0.00000483  -0.00000213  -0.00000867   0.00000140   0.00000102   0.00003520   0.00001903 
 10.12502532   0.14249239  -0.00000477   0.00000183   0.00000820   0.00001790   0.00000125   0.00000009  -0.00004238   0.00002105 
  8.68915618   0.00000000   0.00000000   0.00000000  -0.00000910   0.00001928  -0.00000000   0.00000000  -0.00004193  -0.00002666 
  8.31551339   0.00000000   0.00000000   0.00000000  -0.00001270   0.00001627  -0.00000000   0.00000000  -0.00003320  -0.00003529 
  8.56451294   0.00000000   0.00000000   0.00000000  -0.00001040   0.00001839  -0.00000000   0.00000000  -0.00003929  -0.00002986 
  8.19470669   0.00000000   0.00000000   0.00000000  -0.00001365   0.00001510  -0.00000000   0.00000000  -0.00002996  -0.00003744 
  9.49139492   0.06120800  -0.00000228  -0.00000013   0.00000080   0.00002139   0.00000057   0.00000015  -0.00004998  -0.00000055 
  9.44731975   0.00000000   0.00000000   0.00000000   0.00000023   0.00002150   0.00000000  -0.00000000  -0.00005047  -0.00000216 
  8.43986970   0.00000000   0.00000000   0.00000000  -0.00001161   0.00001738  -0.00000000   0.00000000  -0.00003635  -0.00003274 
  7.21587285   0.00000000   0.00000000   0.00000000  -0.00001679   0.00000419  -0.00000000  -0.00000000  -0.00000165  -0.00004245 
  8.96791700   0.12292281  -0.00000417  -0.00000174  -0.00000580   0.00002061   0.00000110   0.00000054  -0.00004514  -0.00001780 
  9.57460455   0.00000000   0.00000000   0.00000000   0.00000187   0.00002126   0.00000000   0.00000000  -0.00005040   0.00000242 
 13.63083550   0.07817495   0.00000211  -0.00000156  -0.00002751  -0.00000174   0.00000067   0.00000067   0.00004675  -0.00003845 
 13.57686446   0.15147673   0.00000411  -0.00000271  -0.00002635  -0.00000242   0.00000126   0.00000127   0.00004655  -0.00003489 
 13.68984238   0.00000000  -0.00000000   0.00000000  -0.00002871  -0.00000071  -0.00000000  -0.00000000   0.00004592  -0.00004195 
 13.51521870   0.21945478   0.00000595  -0.00000340  -0.00002500  -0.00000303   0.00000177   0.00000178   0.00004566  -0.00003073 
 13.15343435   0.28998948   0.00000785  -0.00000093  -0.00001732  -0.00000701   0.00000191   0.00000194   0.00004537  -0.00001199 
 13.00374822   0.30865552   0.00000805   0.00000045  -0.00001411  -0.00000797   0.00000188   0.00000187   0.00004401  -0.00000505 
 13.30363575   0.28258634   0.00000772  -0.00000229  -0.00002053  -0.00000549   0.00000202   0.00000206   0.00004537  -0.00001936 
 13.44055705   0.28386308   0.00000764  -0.00000359  -0.00002338  -0.00000364   0.00000221   0.00000222   0.00004424  -0.00002617 
 11.39685555   0.34079361  -0.00000212   0.00000936   0.00001065   0.00000157   0.00000198   0.00000013   0.00000081   0.00003586 
 11.53714941   0.31907615  -0.00000085   0.00000883   0.00000986  -0.00000027   0.00000177   0.00000020   0.00000567   0.00003632 
 11.29501275   0.28035261  -0.00000253   0.00000788   0.00001165   0.00000299   0.00000169   0.00000004  -0.00000364   0.00003864 
 11.66774825   0.29198827   0.00000021   0.00000804   0.00000892  -0.00000196   0.00000155   0.00000027   0.00001034   0.00003634 
 11.20601044   0.23061991  -0.00000266   0.00000653   0.00001230   0.00000430   0.00000143  -0.00000001  -0.00000762   0.00004028 
 12.77700134   0.29243951   0.00000704   0.00000238  -0.00000922  -0.00000903   0.00000160   0.00000149   0.00004211   0.00000521 
 12.67732305   0.28930489   0.00000659   0.00000314  -0.00000713  -0.00000915   0.00000152   0.00000135   0.00004061   0.00000937 
 12.87577064   0.31494124   0.00000785   0.00000166  -0.00001139  -0.00000855   0.00000181   0.00000174   0.00004259   0.00000065 
 12.16382632   0.26167100   0.00000345   0.00000584   0.00000263  -0.00000721   0.00000126   0.00000066   0.00002809   0.00002794 
 12.27120290   0.30176969   0.00000463   0.00000605   0.00000057  -0.00000776   0.00000147   0.00000089   0.00003053   0.00002361 
 12.61475838   0.34011881   0.00000725   0.00000414  -0.00000610  -0.00000872   0.00000178   0.00000150   0.00003761   0.00001072 
 12.51419236   0.31864289   0.00000634   0.00000470  -0.00000400  -0.00000873   0.00000161   0.00000127   0.00003629   0.00001501 
 12.05608873   0.29638479   0.00000311   0.00000701   0.00000408  -0.00000615   0.00000145   0.00000063   0.00002399   0.00002945 
 11.80079762   0.33293465   0.00000136   0.00000868   0.00000718  -0.00000344   0.00000171   0.00000045   0.00001494   0.00003288 
 10.20995607   0.21653250  -0.00000687   0.00000312   0.00000884   0.00001686   0.00000186   0.00000010  -0.00003849   0.00002263 
 10.44217935   0.23837648  -0.00000670   0.00000449   0.00001061   0.00001438   0.00000193   0.00000002  -0.00003232   0.00002837 
 10.33230217   0.26835225  -0.00000790   0.00000444   0.00000970   0.00001541   0.00000222   0.00000007  -0.00003375   0.00002490 
 10.65248062   0.22433452  -0.00000547   0.00000506   0.00001186   0.00001192   0.00000170  -0.00000004  -0.00002696   0.00003341 
 10.56510009   0.26705259  -0.00000685   0.00000555   0.00001123   0.00001283   0.00000208  -0.00000001  -0.00002803   0.00003039 
 10.99829854   0.21019752  -0.00000354   0.00000568   0.00001272   0.00000729   0.00000142  -0.00000005  -0.00001573   0.00003934 
 11.08897355   0.26106789  -0.00000374   0.00000711   0.00001237   0.00000591   0.00000170  -0.00000003  -0.00001150   0.00003846 
 10.87947312   0.23844634  -0.00000463   0.00000608   0.00001248   0.00000888   0.00000168  -0.00000005  -0.00001929   0.00003693 
 10.74743757   0.25015490  -0.00000556   0.00000593   0.00001210   0.00001061   0.00000184  -0.00000005  -0.00002330   0.00003445 
  9.67796803   0.07732119  -0.00000287   0.00000018   0.00000317   0.00002086   0.00000072   0.00000015  -0.00004928   0.00000612 
  9.88767478   0.14549531  -0.00000518   0.00000107   0.00000564   0.00001964   0.00000133   0.00000018  -0.00004590   0.00001323 
  9.75955171   0.14593688  -0.00000530   0.00000063   0.00000414   0.00002033   0.00000135   0.00000024  -0.00004713   0.00000887 
 10.00078420   0.15466411  -0.00000536   0.00000155   0.00000689   0.00001885   0.00000139   0.00000014  -0.00004407   0.00001690 
  9.20543003   0.16420446  -0.00000583  -0.00000145  -0.00000281   0.00002113   0.00000151   0.00000058  -0.00004650  -0.00000991 
  9.09632686   0.13968439  -0.00000488  -0.00000159  -0.00000420   0.00002099   0.00000127   0.00000055  -0.00004629  -0.00001366 
  9.41141787   0.10716000  -0.00000396  -0.00000044  -0.00000022   0.00002139   0.00000100   0.00000030  -0.00004916  -0.00000329 
  9.31258299   0.17012494  -0.00000613  -0.00000108  -0.00000145   0.00002121   0.00000158   0.00000053  -0.00004693  -0.00000638 
  8.76680945   0.08969309  -0.00000285  -0.00000165  -0.00000818   0.00001969   0.00000077   0.00000046  -0.00004269  -0.00002408 
  8.86613051   0.16389368  -0.00000532  -0.00000264  -0.00000694   0.00002004   0.00000143   0.00000077  -0.00004253  -0.00002031 
 11.95284347   0.34991656   0.00000272   0.00000852   0.00000513  -0.00000496   0.00000175   0.00000064   0.00001986   0.00002946 
 12.38857487   0.34239049   0.00000595   0.00000593  -0.00000178  -0.00000812   0.00000171   0.00000118   0.00003257   0.00001855 
 10.08272062   0.21242081  -0.00000706   0.00000248   0.00000764   0.00001798   0.00000187   0.00000016  -0.00004079   0.00001887 
  8.63824193   0.09490363  -0.00000284  -0.00000196  -0.00000958   0.00001885   0.00000078   0.00000053  -0.00004008  -0.00002744 
  8.27345358   0.07151710  -0.00000171  -0.00000188  -0.00001300   0.00001584   0.00000051   0.00000047  -0.00003168  -0.00003558 
  8.38932397   0.07882632  -0.00000205  -0.00000195  -0.00001201   0.00001690   0.00000059   0.00000050  -0.00003460  -0.00003330 
  8.51298745   0.08555261  -0.00000240  -0.00000195  -0.00001086   0.00001793   0.00000067   0.00000051  -0.00003746  -0.00003056 
  8.07390000   0.00000000   0.00000000   0.00000000  -0.00001448   0.00001387   0.00000000   0.00000000  -0.00002664  -0.00003933 
  8.15706100   0.07932655  -0.00000172  -0.00000219  -0.00001386   0.00001469   0.00000053   0.00000055  -0.00002855  -0.00003747 
  9.55722054   0.10302217  -0.00000382  -0.00000006   0.00000164   0.00002117   0.00000096   0.00000023  -0.00004922   0.00000179 
  7.34162410   0.00000000   0.00000000   0.00000000  -0.00001684   0.00000560  -0.00000000   0.00000000  -0.00000517  -0.00004299 
  7.28291376   0.07240240  -0.00000028  -0.00000226  -0.00001678   0.00000494   0.00000020   0.00000057  -0.00000348  -0.00004223 
  7.16031347   0.06793369  -0.00000010  -0.00000210  -0.00001668   0.00000358   0.00000015   0.00000053  -0.00000012  -0.00004156 
  7.09249316   0.00000000   0.00000000   0.00000000  -0.00001662   0.00000283   0.00000000   0.00000000   0.00000159  -0.00004180 
  9.00265488   0.18958408  -0.00000638  -0.00000250  -0.00000528   0.00002053   0.00000169   0.00000080  -0.00004358  -0.00001587 
  6.96973133   0.00000000   0.00000000   0.00000000  -0.00001634   0.00000153   0.00000000  -0.00000000   0.00000483  -0.00004044 
  7.95309330   0.00000000   0.00000000   0.00000000  -0.00001519   0.00001257  -0.00000000   0.00000000  -0.00002317  -0.00004077 
  7.83228660   0.00000000   0.00000000   0.00000000  -0.00001577   0.00001123   0.00000000   0.00000000  -0.00001957  -0.00004187 
  7.46735840   0.00000000   0.00000000   0.00000000  -0.00001676   0.00000704  -0.00000000   0.00000000  -0.00000879  -0.00004323 
 11.52126515   0.38427497  -0.00000114   0.00001027   0.00000940  -0.00000002   0.00000215   0.00000027   0.00000549   0.00003317 
  7.90759896   0.07027465  -0.00000117  -0.00000210  -0.00001538   0.00001205   0.00000039   0.00000052  -0.00002155  -0.00004069 
 10.82143951   0.30445353  -0.00000613   0.00000734   0.00001198   0.00000944   0.00000217  -0.00000005  -0.00001929   0.00003375 
 13.72509838   0.15678811   0.00000399  -0.00000359  -0.00002922   0.00000042   0.00000143   0.00000138   0.00004326  -0.00004261 
 13.78425850   0.08294001   0.00000207  -0.00000209  -0.00003043   0.00000136   0.00000078   0.00000075   0.00004297  -0.00004667 
 13.66561342   0.23008840   0.00000590  -0.00000472  -0.00002793  -0.00000028   0.00000204   0.00000198   0.00004264  -0.00003833 
 13.83721903   0.00000000  -0.00000000   0.00000000  -0.00003143   0.00000241  -0.00000000  -0.00000000   0.00004191  -0.00004986 
 13.59565795   0.29611908   0.00000761  -0.00000526  -0.00002642  -0.00000100   0.00000254   0.00000246   0.00004153  -0.00003362 
 13.13239306   0.37000958   0.00000961  -0.00000092  -0.00001696  -0.00000637   0.00000245   0.00000243   0.00004182  -0.00001114 
 13.24880255   0.34984368   0.00000927  -0.00000216  -0.00001938  -0.00000544   0.00000247   0.00000246   0.00004257  -0.00001637 
 12.88682863   0.37437785   0.00000910   0.00000179  -0.00001182  -0.00000792   0.00000220   0.00000208   0.00004013  -0.00000063 
 13.01408790   0.38055869   0.00000960   0.00000041  -0.00001450  -0.00000716   0.00000238   0.00000232   0.00004079  -0.00000599 
 13.36941698   0.36500522   0.00000955  -0.00000364  -0.00002184  -0.00000378   0.00000277   0.00000273   0.00004128  -0.00002172 
 13.51039446   0.34901246   0.00000898  -0.00000510  -0.00002465  -0.00000188   0.00000288   0.00000278   0.00004050  -0.00002853 
 11.39186989   0.41791605  -0.00000252   0.00001097   0.00000995   0.00000162   0.00000245   0.00000020   0.00000177   0.00003188 
 11.26553850   0.36332475  -0.00000341   0.00000976   0.00001110   0.00000331   0.00000221   0.00000007  -0.00000326   0.00003481 
 11.66649601   0.37898205   0.00000025   0.00000997   0.00000819  -0.00000179   0.00000203   0.00000039   0.00001027   0.00003230 
 11.15864732   0.31261870  -0.00000385   0.00000846   0.00001187   0.00000484   0.00000198   0.00000000  -0.00000797   0.00003676 
 12.74250672   0.35836964   0.00000821   0.00000315  -0.00000877  -0.00000850   0.00000197   0.00000177   0.00003908   0.00000551 
 12.12105772   0.35012297   0.00000410   0.00000773   0.00000269  -0.00000644   0.00000173   0.00000085   0.00002504   0.00002585 
 12.25591828   0.37424383   0.00000541   0.00000732   0.00000032  -0.00000722   0.00000186   0.00000111   0.00002830   0.00002138 
 12.63483996   0.40460555   0.00000844   0.00000455  -0.00000685  -0.00000814   0.00000218   0.00000182   0.00003546   0.00000836 
 12.50799519   0.38576615   0.00000737   0.00000554  -0.00000429  -0.00000817   0.00000200   0.00000153   0.00003385   0.00001323 
 11.82380828   0.39736116   0.00000179   0.00000992   0.00000633  -0.00000349   0.00000206   0.00000059   0.00001529   0.00002936 
 10.08582541   0.27574671  -0.00000892   0.00000315   0.00000751   0.00001762   0.00000240   0.00000021  -0.00003802   0.00001808 
 10.20718576   0.30770750  -0.00000939   0.00000424   0.00000852   0.00001639   0.00000261   0.00000016  -0.00003437   0.00002080 
 10.48325407   0.31891157  -0.00000842   0.00000603   0.00001050   0.00001352   0.00000253   0.00000003  -0.00002800   0.00002715 
 10.33323514   0.33618677  -0.00000956   0.00000539   0.00000941   0.00001501   0.00000276   0.00000011  -0.00003050   0.00002322 
 10.67415747   0.32176887  -0.00000739   0.00000705   0.00001143   0.00001125   0.00000241  -0.00000003  -0.00002295   0.00003077 
 10.98401722   0.30949392  -0.00000510   0.00000798   0.00001211   0.00000725   0.00000209  -0.00000004  -0.00001391   0.00003565 
  9.63411460   0.15955069  -0.00000583   0.00000020   0.00000260   0.00002078   0.00000148   0.00000032  -0.00004744   0.00000450 
  9.84683726   0.21930973  -0.00000769   0.00000137   0.00000509   0.00001956   0.00000199   0.00000030  -0.00004365   0.00001138 
  9.96550337   0.22434502  -0.00000767   0.00000201   0.00000640   0.00001880   0.00000201   0.00000024  -0.00004206   0.00001510 
  9.71731928   0.21865340  -0.00000779   0.00000070   0.00000358   0.00002020   0.00000201   0.00000039  -0.00004474   0.00000722 
  9.25408630   0.23791412  -0.00000830  -0.00000179  -0.00000212   0.00002086   0.00000218   0.00000079  -0.00004390  -0.00000759 
  9.13129264   0.22344102  -0.00000766  -0.00000230  -0.00000365   0.00002074   0.00000203   0.00000084  -0.00004357  -0.00001152 
  9.38700787   0.20455048  -0.00000734  -0.00000094  -0.00000049   0.00002105   0.00000190   0.00000058  -0.00004590  -0.00000367 
  9.50205198   0.17522786  -0.00000639  -0.00000033   0.00000095   0.00002105   0.00000163   0.00000043  -0.00004722  -0.00000000 
  8.73755117   0.17220992  -0.00000530  -0.00000319  -0.00000836   0.00001931   0.00000145   0.00000089  -0.00004015  -0.00002362 
  8.79408347   0.24077255  -0.00000739  -0.00000409  -0.00000756   0.00001937   0.00000205   0.00000118  -0.00003858  -0.00002053 
  8.91589140   0.24338432  -0.00000781  -0.00000357  -0.00000618   0.00001995   0.00000213   0.00000109  -0.00004026  -0.00001731 
 11.98506187   0.40850470   0.00000338   0.00000946   0.00000417  -0.00000500   0.00000207   0.00000082   0.00001999   0.00002612 
 12.38265765   0.39843247   0.00000667   0.00000674  -0.00000207  -0.00000768   0.00000202   0.00000138   0.00003070   0.00001678 
  8.53174809   0.16900663  -0.00000469  -0.00000373  -0.00001050   0.00001790   0.00000134   0.00000098  -0.00003614  -0.00002863 
  8.63177449   0.18000179  -0.00000526  -0.00000366  -0.00000947   0.00001860   0.00000147   0.00000099  -0.00003784  -0.00002607 
  8.27914793   0.14844497  -0.00000351  -0.00000383  -0.00001280   0.00001579   0.00000105   0.00000097  -0.00003074  -0.00003415 
  8.41453068   0.15753529  -0.00000409  -0.00000377  -0.00001163   0.00001698   0.00000119   0.00000097  -0.00003376  -0.00003142 
  8.02576190   0.10903792  -0.00000207  -0.00000313  -0.00001466   0.00001330   0.00000067   0.00000078  -0.00002463  -0.00003887 