VARIABLES = "x", "y", "ux" ,"uy" ,"p" ,"vort" ,"psi" 
ZONE F=FEPOINT,ET=TRIANGLE,N=14893,E= 29229
 28.43872334   0.00000000   0.69649100   0.00000000  -0.00052583  -0.00001011   0.00000000 
 28.62741927   0.00000000   0.69771300   0.00000000  -0.00052023  -0.00001867   0.00000000 
 28.25002742   0.00000000   0.69525500   0.00000000  -0.00053146  -0.00002952   0.00000000 
 28.81682971   0.00000000   0.69892600  -0.00000000  -0.00051467   0.00000430   0.00000000 
 28.52664764   0.06438344   0.69762800  -0.00041655  -0.00052339   0.01754110   0.00000000 
 28.37601838   0.06856062   0.69672800  -0.00044755  -0.00052790   0.01881600   0.00000000 
 28.68127302   0.06210239   0.69858200  -0.00039805  -0.00051880   0.01675940   0.00000000 
 28.22474305   0.07304957   0.69582800  -0.00048112  -0.00053245   0.02019300   0.00000000 
 28.06133150   0.00000000   0.69400400   0.00000000  -0.00053714  -0.00002831   0.00000000 
 28.07525065   0.06907285   0.69476300  -0.00045926  -0.00053694   0.01929360   0.00000000 
 29.62249462   0.00000000   0.70393500  -0.00000000  -0.00049140  -0.00001846   0.00000000 
 29.00926179   0.00000000   0.70014400  -0.00000000  -0.00050903  -0.00002284   0.00000000 
 29.41268767   0.00000000   0.70265300  -0.00000000  -0.00049739  -0.00002320   0.00000000 
 29.20829104   0.00000000   0.70139000  -0.00000000  -0.00050327   0.00001664   0.00000000 
 29.49108723   0.05615599   0.70354400  -0.00034316  -0.00049525   0.01458500   0.00000000 
 28.87102853   0.06192488   0.69978500  -0.00039244  -0.00051323   0.01658880   0.00000000 
 28.71948420   0.11475609   0.70008000  -0.00073149  -0.00051805   0.03084010   0.00000000 
 28.31551043   0.13698954   0.69826600  -0.00089297  -0.00053030   0.03749930   0.00000000 
 28.50195693   0.13925069   0.69954300  -0.00089727  -0.00052475   0.03780080   0.00000000 
 28.12837569   0.14160795   0.69723400  -0.00093329  -0.00053597   0.03911750   0.00000000 
 27.87263557   0.00000000   0.69273900   0.00000000  -0.00054287  -0.00002090   0.00000000 
 27.91287784   0.06840797   0.69366900  -0.00045948  -0.00054185   0.01925090   0.00000000 
 27.92204608   0.14231146   0.69591300  -0.00094988  -0.00054226   0.03974400   0.00000000 
 32.62682851   0.00000000   0.72071900  -0.00000000  -0.00041098  -0.00002263   0.00000000 
 35.67358070   0.00000000   0.73524400   0.00000000  -0.00033815   0.00001553   0.00000000 
 35.89000587   0.00000000   0.73619600   0.00000000  -0.00033322  -0.00001798   0.00000000 
 31.92333787   0.00000000   0.71703200   0.00000000  -0.00042899   0.00000273   0.00000000 
 32.15783475   0.00000000   0.71827600  -0.00000000  -0.00042294   0.00001170   0.00000000 
 32.39233163   0.00000000   0.71950500  -0.00000000  -0.00041697  -0.00003711   0.00000000 
 32.30903533   0.08296904   0.71985300  -0.00043301  -0.00041919   0.01881040   0.00000000 
 29.83767556   0.00000000   0.70523300  -0.00000000  -0.00048530  -0.00001818   0.00000000 
 29.70955895   0.05045195   0.70478900  -0.00030448  -0.00048902   0.01297060   0.00000000 
 30.05811277   0.00000000   0.70654600  -0.00000000  -0.00047913  -0.00003034   0.00000000 
 30.28360316   0.00000000   0.70787300  -0.00000000  -0.00047288   0.00000813   0.00000000 
 29.05305899   0.06760909   0.70102700  -0.00042370  -0.00050793   0.01792710   0.00000000 
 29.26087454   0.06350976   0.70224600  -0.00039323  -0.00050189   0.01666680   0.00000000 
 29.35719359   0.11723534   0.70410600  -0.00071935  -0.00049949   0.03047750   0.00000000 
 29.60623737   0.10687063   0.70531000  -0.00064681  -0.00049228   0.02750450   0.00000000 
 28.67331516   0.17869420   0.70230800  -0.00113446  -0.00052018   0.04773980   0.00000000 
 28.89100307   0.13744698   0.70192000  -0.00086534  -0.00051324   0.03654790   0.00000000 
 28.25147485   0.20992604   0.70131200  -0.00136118  -0.00053331   0.05706930   0.00000000 
 28.50505376   0.22580746   0.70381900  -0.00143822  -0.00052597   0.06041750   0.00000000 
 28.02611549   0.20618142   0.69967400  -0.00135630  -0.00054011   0.05668550   0.00000000 
 27.75248690   0.05487780   0.69235300  -0.00037256  -0.00054666   0.01556660   0.00000000 
 27.68393965   0.00000000   0.69145900   0.00000000  -0.00054863  -0.00002100   0.00000000 
 27.71683839   0.11444858   0.69354400  -0.00077576  -0.00054822   0.03239270   0.00000000 
 27.71162218   0.17425117   0.69594600  -0.00117399  -0.00054918   0.04897460   0.00000000 
 27.82256947   0.22618753   0.69956900  -0.00150194  -0.00054668   0.06264680   0.00000000 
 27.99942654   0.27940692   0.70436700  -0.00181723  -0.00054248   0.07581120   0.00000000 
 36.10866607   0.00000000   0.73714800  -0.00000000  -0.00032830  -0.00000441   0.00000000 
 36.32871537   0.00000000   0.73809600  -0.00000000  -0.00032342   0.00002123   0.00000000 
 32.86012737   0.00000000   0.72191200  -0.00000000  -0.00040518  -0.00002455   0.00000000 
 32.47528671   0.08327687   0.72071800  -0.00043088  -0.00041508   0.01876210   0.00000000 
 32.68509532   0.07740382   0.72168700  -0.00039620  -0.00040970   0.01725970   0.00000000 
 36.02618426   0.09313425   0.73762900  -0.00040388  -0.00033032   0.01798060   0.00000000 
 35.46044789   0.00000000   0.73429700   0.00000000  -0.00034300   0.00001355   0.00000000 
 35.54829654   0.08737176   0.73544200  -0.00038758  -0.00034115   0.01721260   0.00000000 
 35.72003082   0.08290747   0.73612300  -0.00036501  -0.00033718   0.01624020   0.00000000 
 35.85622946   0.11412081   0.73731600  -0.00049802  -0.00033425   0.02218190   0.00000000 
 35.03965506   0.00000000   0.73239900   0.00000000  -0.00035269  -0.00000011   0.00000000 
 30.51386021   0.00000000   0.70921000  -0.00000000  -0.00046651  -0.00003723   0.00000000 
 30.74781158   0.00000000   0.71055100   0.00000000  -0.00046015  -0.00001203   0.00000000 
 30.98307250   0.00000000   0.71188100   0.00000000  -0.00045376  -0.00002868   0.00000000 
 31.21833342   0.00000000   0.71319500   0.00000000  -0.00044751  -0.00002893   0.00000000 
 31.45359435   0.00000000   0.71449200   0.00000000  -0.00044126  -0.00003303   0.00000000 
 31.68884099   0.00000000   0.71577200  -0.00000000  -0.00043509  -0.00003152   0.00000000 
 31.93574140   0.06856826   0.71764200  -0.00036531  -0.00042880   0.01580600   0.00000000 
 31.70566450   0.07088668   0.71645000  -0.00038231  -0.00043480   0.01650150   0.00000000 
 32.13599808   0.08955997   0.71907900  -0.00047154  -0.00042373   0.02044930   0.00000000 
 32.25849476   0.16279476   0.72181200  -0.00084640  -0.00042110   0.03673820   0.00000000 
 29.87201185   0.07434027   0.70614300  -0.00044398  -0.00048454   0.01891790   0.00000000 
 30.08396711   0.06265045   0.70719500  -0.00036987  -0.00047851   0.01575720   0.00000000 
 30.26727935   0.07023248   0.70839400  -0.00041017  -0.00047348   0.01753070   0.00000000 
 29.09119171   0.14289366   0.70335700  -0.00088853  -0.00050742   0.03754620   0.00000000 
 29.23972938   0.18066102   0.70585500  -0.00110870  -0.00050361   0.04692480   0.00000000 
 29.72747177   0.15309670   0.70756900  -0.00091623  -0.00048924   0.03894250   0.00000000 
 29.47353917   0.17277642   0.70688900  -0.00104698  -0.00049674   0.04441700   0.00000000 
 28.82636624   0.21754094   0.70528900  -0.00136095  -0.00051625   0.05737580   0.00000000 
 28.28311353   0.28795887   0.70674000  -0.00183760  -0.00053402   0.07686340   0.00000000 
 28.57003418   0.29144166   0.70871300  -0.00182666  -0.00052544   0.07654060   0.00000000 
 28.06634057   0.35178858   0.71089500  -0.00224123  -0.00054247   0.09318900   0.00000000 
 27.49524373   0.00000000   0.69016300   0.00000000  -0.00055440  -0.00002448   0.00000000 
 27.56841217   0.06665563   0.69130500  -0.00045753  -0.00055235   0.01910550   0.00000000 
 27.50451765   0.14841474   0.69338500  -0.00101607  -0.00055516   0.04234590   0.00000000 
 27.57883873   0.22751533   0.69808400  -0.00153353  -0.00055425   0.06375600   0.00000000 
 27.70356818   0.28890355   0.70327800  -0.00190985  -0.00055186   0.07938900   0.00000000 
 27.81349333   0.34012153   0.70833200  -0.00220709  -0.00054995   0.09162310   0.00000000 
 36.24560322   0.08673536   0.73846000  -0.00037238  -0.00032541   0.01663090   0.00000000 
 36.44534593   0.07808082   0.73917400  -0.00033235  -0.00032089   0.01483520   0.00000000 
 36.55291722   0.00000000   0.73905200  -0.00000000  -0.00031845   0.00003102   0.00000000 
 33.09130676   0.00000000   0.72308000  -0.00000000  -0.00039942   0.00000631   0.00000000 
 32.92198216   0.06640349   0.72271300  -0.00033594  -0.00040373   0.01466900   0.00000000 
 34.41605134   0.00000000   0.72951400  -0.00000000  -0.00036733  -0.00001521   0.00000000 
 33.54571061   0.00000000   0.72533600  -0.00000000  -0.00038824   0.00000527   0.00000000 
 33.31991812   0.00000000   0.72422100  -0.00000000  -0.00039377   0.00002311   0.00000000 
 32.49831323   0.16101857   0.72296500  -0.00082692  -0.00041493   0.03591690   0.00000000 
 32.74918389   0.14542197   0.72369500  -0.00073827  -0.00040850   0.03216740   0.00000000 
 32.98884102   0.12016352   0.72415200  -0.00060386  -0.00040233   0.02636900   0.00000000 
 36.16495714   0.17343039   0.74027300  -0.00074235  -0.00032762   0.03306590   0.00000000 
 35.24731507   0.00000000   0.73334100   0.00000000  -0.00034790   0.00000899   0.00000000 
 35.92873523   0.20734144   0.74051500  -0.00089380  -0.00033313   0.03976310   0.00000000 
 35.33793719   0.08574837   0.73448000  -0.00038434  -0.00034598   0.01705390   0.00000000 
 35.46477246   0.16072420   0.73686600  -0.00071192  -0.00034343   0.03157770   0.00000000 
 35.68009233   0.18565987   0.73864000  -0.00081181  -0.00033865   0.03602140   0.00000000 
 34.83200291   0.00000000   0.73144800   0.00000000  -0.00035752   0.00000094   0.00000000 
 34.62458928   0.00000000   0.73048800  -0.00000000  -0.00036238  -0.00001907   0.00000000 
 34.99968467   0.06665997   0.73266600  -0.00030393  -0.00035373   0.01344090   0.00000000 
 30.64101554   0.07751727   0.71067900  -0.00044309  -0.00046317   0.01899630   0.00000000 
 30.47602202   0.07654001   0.70971600  -0.00044158  -0.00046778   0.01887000   0.00000000 
 30.81047535   0.07710912   0.71163100  -0.00043665  -0.00045868   0.01875520   0.00000000 
 31.03641015   0.07456227   0.71285100  -0.00041701  -0.00045252   0.01794230   0.00000000 
 31.24420580   0.07888503   0.71408100  -0.00043606  -0.00044699   0.01881580   0.00000000 
 31.47256054   0.07410254   0.71524400  -0.00040465  -0.00044093   0.01744930   0.00000000 
 31.92904419   0.14315823   0.71942500  -0.00075897  -0.00042942   0.03286070   0.00000000 
 31.74488416   0.13976304   0.71834600  -0.00074858  -0.00043420   0.03239430   0.00000000 
 31.51346241   0.14317285   0.71722800  -0.00077622  -0.00044029   0.03351310   0.00000000 
 31.58374664   0.20041969   0.71989000  -0.00107534  -0.00043902   0.04638940   0.00000000 
 32.31609575   0.24778785   0.72600800  -0.00126984  -0.00042056   0.05502510   0.00000000 
 32.01809565   0.18995037   0.72166700  -0.00099709  -0.00042752   0.04316190   0.00000000 
 32.10917415   0.24316292   0.72473100  -0.00126063  -0.00042584   0.05454630   0.00000000 
 29.99174504   0.13326879   0.70839800  -0.00078709  -0.00048161   0.03356730   0.00000000 
 30.25491601   0.13941778   0.71013100  -0.00081072  -0.00047430   0.03465530   0.00000000 
 29.80311379   0.21031919   0.71064000  -0.00124416  -0.00048785   0.05290590   0.00000000 
 29.07132672   0.23618424   0.70785900  -0.00145191  -0.00050938   0.06123630   0.00000000 
 29.32637955   0.24200304   0.70971000  -0.00146419  -0.00050206   0.06193680   0.00000000 
 29.56716535   0.23224792   0.71051100  -0.00138794  -0.00049493   0.05884660   0.00000000 
 28.80995862   0.29513922   0.71039600  -0.00182215  -0.00051837   0.07656630   0.00000000 
 28.32168795   0.35997321   0.71312700  -0.00225353  -0.00053485   0.09399230   0.00000000 
 28.56752030   0.36532857   0.71501300  -0.00225056  -0.00052753   0.09406450   0.00000000 
 28.06869240   0.42314195   0.71815500  -0.00264193  -0.00054485   0.10954200   0.00000000 
 27.82194649   0.40104992   0.71440800  -0.00255857  -0.00055175   0.10592000   0.00000000 
 27.30654780   0.00000000   0.68885200   0.00000000  -0.00056023   0.00003553   0.00000000 
 27.37120943   0.08279335   0.69029600  -0.00057490  -0.00055856   0.02394170   0.00000000 
 27.36797417   0.21990327   0.69622500  -0.00150388  -0.00056067   0.06245640   0.00000000 
 27.26807322   0.15858356   0.69223200  -0.00110082  -0.00056264   0.04571780   0.00000000 
 27.45861386   0.29356128   0.70212400  -0.00196851  -0.00055966   0.08164190   0.00000000 
 27.56765755   0.36335682   0.70908500  -0.00237956  -0.00055838   0.09845620   0.00000000 
 36.31483923   0.23287205   0.74318000  -0.00098259  -0.00032474   0.04374540   0.00000000 
 36.46262372   0.16332452   0.74119500  -0.00069016  -0.00032090   0.03078060   0.00000000 
 36.53644262   0.25847195   0.74524900  -0.00107546  -0.00031997   0.04794330   0.00000000 
 36.67224921   0.09864794   0.74047300  -0.00041495  -0.00031599   0.01853390   0.00000000 
 36.77711907   0.00000000   0.73999800  -0.00000000  -0.00031349   0.00003509   0.00000000 
 37.00724486   0.00000000   0.74095900   0.00000000  -0.00030845  -0.00000100   0.00000000 
 33.18680798   0.07030873   0.72409800  -0.00035081  -0.00039718   0.01531930   0.00000000 
 33.76848253   0.00000000   0.72642200  -0.00000000  -0.00038284   0.00001201   0.00000000 
 34.20398745   0.00000000   0.72851200  -0.00000000  -0.00037235   0.00000483   0.00000000 
 34.28883386   0.07262095   0.72946300  -0.00034277  -0.00037044   0.01511140   0.00000000 
 34.45809738   0.08619238   0.73047900  -0.00040311  -0.00036651   0.01775990   0.00000000 
 33.98808154   0.00000000   0.72748200  -0.00000000  -0.00037751  -0.00002859   0.00000000 
 33.60070716   0.06942183   0.72612200  -0.00033919  -0.00038699   0.01487680   0.00000000 
 33.40190140   0.07519204   0.72523900  -0.00037096  -0.00039188   0.01628120   0.00000000 
 32.24553002   0.33144389   0.73101100  -0.00167765  -0.00042370   0.07249960   0.00000000 
 33.13232765   0.15693225   0.72597300  -0.00078017  -0.00039902   0.03407220   0.00000000 
 32.45610631   0.30408043   0.73010400  -0.00153114  -0.00041780   0.06630590   0.00000000 
 32.74081727   0.21231562   0.72629000  -0.00106988  -0.00040933   0.04653380   0.00000000 
 32.55199480   0.22774388   0.72611100  -0.00115643  -0.00041428   0.05024380   0.00000000 
 32.91995124   0.20285165   0.72673400  -0.00101404  -0.00040470   0.04419000   0.00000000 
 36.11402634   0.28124673   0.74470300  -0.00118880  -0.00032966   0.05287070   0.00000000 
 35.91814429   0.31233136   0.74565200  -0.00132468  -0.00033436   0.05873840   0.00000000 
 35.14950809   0.12167353   0.73438200  -0.00054900  -0.00035044   0.02431190   0.00000000 
 35.71899090   0.28666101   0.74339200  -0.00123295  -0.00033871   0.05474940   0.00000000 
 35.28895754   0.19516077   0.73730700  -0.00086838  -0.00034771   0.03847750   0.00000000 
 35.50021788   0.24990734   0.74059000  -0.00109262  -0.00034333   0.04838010   0.00000000 
 34.78557551   0.08952760   0.73205100  -0.00041202  -0.00035879   0.01823410   0.00000000 
 34.61988327   0.10224435   0.73153900  -0.00047387  -0.00036269   0.02092430   0.00000000 
 34.93831325   0.16295587   0.73461500  -0.00074004  -0.00035561   0.03275280   0.00000000 
 34.50784533   0.18220351   0.73335100  -0.00084329  -0.00036586   0.03714070   0.00000000 
 30.53529003   0.15283441   0.71220700  -0.00087366  -0.00046669   0.03745620   0.00000000 
 30.83603517   0.14585501   0.71363300  -0.00082048  -0.00045841   0.03525590   0.00000000 
 30.65226676   0.20498335   0.71512700  -0.00115665  -0.00046414   0.04952790   0.00000000 
 31.04703601   0.15936237   0.71528800  -0.00088478  -0.00045287   0.03807770   0.00000000 
 31.26801927   0.15698090   0.71639700  -0.00086129  -0.00044691   0.03708890   0.00000000 
 31.77013485   0.21917778   0.72176000  -0.00116122  -0.00043435   0.05015880   0.00000000 
 31.32908188   0.21980239   0.71950400  -0.00119245  -0.00044601   0.05129150   0.00000000 
 31.49069410   0.26072011   0.72261900  -0.00139282  -0.00044231   0.05993620   0.00000000 
 32.06529627   0.31721945   0.72914100  -0.00162585  -0.00042810   0.07019150   0.00000000 
 32.10428592   0.39136443   0.73507400  -0.00196733  -0.00042857   0.08469760   0.00000000 
 31.86685994   0.27797742   0.72556800  -0.00145093  -0.00043264   0.06261120   0.00000000 
 31.85712674   0.34202593   0.72996100  -0.00176273  -0.00043407   0.07589590   0.00000000 
 30.03870422   0.20008592   0.71145900  -0.00116948  -0.00048106   0.04980660   0.00000000 
 30.27162042   0.20365991   0.71295200  -0.00117418  -0.00047460   0.05009980   0.00000000 
 29.89138823   0.26417344   0.71433000  -0.00154104  -0.00048628   0.06544100   0.00000000 
 29.65823761   0.29348204   0.71506900  -0.00172514  -0.00049346   0.07305530   0.00000000 
 29.00425974   0.31020171   0.71268500  -0.00188712  -0.00051292   0.07937870   0.00000000 
 29.20387979   0.30928141   0.71373700  -0.00186012  -0.00050708   0.07844360   0.00000000 
 29.42797983   0.30975353   0.71502300  -0.00183870  -0.00050051   0.07766090   0.00000000 
 28.80274240   0.37182068   0.71692300  -0.00225503  -0.00052065   0.09437570   0.00000000 
 28.31034992   0.42988913   0.72019400  -0.00263996  -0.00053761   0.10961300   0.00000000 
 28.56293219   0.42986067   0.72152700  -0.00260058  -0.00052984   0.10829700   0.00000000 
 27.23247013   0.28916490   0.70033400  -0.00196864  -0.00056662   0.08142600   0.00000000 
 27.20414573   0.05614148   0.68859500  -0.00039455  -0.00056358   0.01641590   0.00000000 
 28.06805721   0.49139472   0.72612600  -0.00299974  -0.00054766   0.12383800   0.00000000 
 27.81896886   0.46974623   0.72219500  -0.00293278  -0.00055463   0.12090800   0.00000000 
 27.58438724   0.44034895   0.71745100  -0.00281615  -0.00056080   0.11605400   0.00000000 
 27.11785188   0.00000000   0.68752500   0.00000000  -0.00056612  -0.00002283   0.00000000 
 27.12678127   0.11409408   0.68949700  -0.00080282  -0.00056651   0.03332050   0.00000000 
 27.13143209   0.22653313   0.69507900  -0.00157091  -0.00056823   0.06502280   0.00000000 
 27.03527476   0.17422896   0.69139400  -0.00122517  -0.00057024   0.05073280   0.00000000 
 27.30566794   0.36019470   0.70720800  -0.00239962  -0.00056654   0.09903480   0.00000000 
 27.35793015   0.41866584   0.71370700  -0.00273375  -0.00056720   0.11247400   0.00000000 
 36.29778284   0.32926997   0.74815900  -0.00136784  -0.00032608   0.06073260   0.00000000 
 36.50323633   0.34776423   0.75009600  -0.00142574  -0.00032169   0.06339990   0.00000000 
 36.72835046   0.32610197   0.74962600  -0.00132906  -0.00031641   0.05919840   0.00000000 
 37.23759411   0.00000000   0.74191100   0.00000000  -0.00030349   0.00003569   0.00000000 
 36.75973378   0.20307060   0.74377500  -0.00084290  -0.00031459   0.03772510   0.00000000 
 37.15234176   0.07959027   0.74214600  -0.00032794  -0.00030544   0.01468410   0.00000000 
 36.93634417   0.11445705   0.74188400  -0.00047515  -0.00031024   0.02131780   0.00000000 
 37.47134440   0.00000000   0.74286700   0.00000000  -0.00029840   0.00001078   0.00000000 
 32.14218402   0.44962593   0.74049200  -0.00221961  -0.00042895   0.09533440   0.00000000 
 33.30422677   0.15427673   0.72672100  -0.00076048  -0.00039474   0.03328440   0.00000000 
 33.77047095   0.08759383   0.72724800  -0.00042393  -0.00038298   0.01860670   0.00000000 
 34.10960303   0.09375946   0.72898500  -0.00044598  -0.00037483   0.01964800   0.00000000 
 34.27014321   0.16305532   0.73158500  -0.00076504  -0.00037135   0.03368920   0.00000000 
 33.93619067   0.10284810   0.72835000  -0.00049304  -0.00037899   0.02170200   0.00000000 
 33.53201850   0.15300165   0.72777800  -0.00074562  -0.00038911   0.03265730   0.00000000 
 32.35170974   0.38552122   0.73569900  -0.00191605  -0.00042200   0.08266010   0.00000000 
 32.34503236   0.44663979   0.74107400  -0.00218386  -0.00042359   0.09396240   0.00000000 
 33.10463923   0.24458450   0.72963900  -0.00120388  -0.00040055   0.05247100   0.00000000 
 32.56637023   0.35555827   0.73428700  -0.00176048  -0.00041590   0.07618000   0.00000000 
 32.70517537   0.28140628   0.72983800  -0.00140486  -0.00041110   0.06104800   0.00000000 
 32.89946472   0.28925421   0.73123400  -0.00142769  -0.00040632   0.06205990   0.00000000 
 36.05381221   0.39860608   0.75186900  -0.00164902  -0.00033250   0.07310070   0.00000000 
 35.78896481   0.39744817   0.75078800  -0.00166501  -0.00033853   0.07364210   0.00000000 
 35.10270129   0.24042943   0.73844500  -0.00107267  -0.00035240   0.04754480   0.00000000 
 35.55122398   0.35341047   0.74677400  -0.00151219  -0.00034337   0.06692470   0.00000000 
 35.32672388   0.29883691   0.74246500  -0.00130641  -0.00034785   0.05770520   0.00000000 
 34.13767702   0.24714519   0.73453300  -0.00115447  -0.00037538   0.05067240   0.00000000 
 34.98464718   0.32625743   0.74271500  -0.00144208  -0.00035620   0.06352310   0.00000000 
 34.86970853   0.25884257   0.73835200  -0.00116463  -0.00035804   0.05142670   0.00000000 
 34.71605535   0.19431058   0.73475000  -0.00088892  -0.00036105   0.03919800   0.00000000 
 34.52344287   0.26358106   0.73709500  -0.00120517  -0.00036625   0.05304090   0.00000000 
 34.33174888   0.25703112   0.73590700  -0.00118746  -0.00037073   0.05221190   0.00000000 
 30.40822844   0.24705594   0.71609700  -0.00140387  -0.00047143   0.05993100   0.00000000 
 30.83431451   0.23030086   0.71743700  -0.00128157  -0.00045945   0.05488560   0.00000000 
 30.59636398   0.27806066   0.71906800  -0.00155496  -0.00046678   0.06642950   0.00000000 
 31.04187168   0.24842250   0.71956700  -0.00136281  -0.00045410   0.05850900   0.00000000 
 31.62969865   0.29836016   0.72572100  -0.00157092  -0.00043921   0.06762500   0.00000000 
 31.40423605   0.32375919   0.72640300  -0.00171625  -0.00044569   0.07366490   0.00000000 
 31.21189134   0.29739065   0.72356300  -0.00160168  -0.00045039   0.06871810   0.00000000 
 31.89940285   0.39679142   0.73461100  -0.00201320  -0.00043407   0.08652480   0.00000000 
 31.91943744   0.45583550   0.74013500  -0.00227217  -0.00043499   0.09738410   0.00000000 
 31.69484002   0.40544334   0.73444000  -0.00207454  -0.00043973   0.08895150   0.00000000 
 31.65599822   0.35646897   0.73012900  -0.00185060  -0.00043964   0.07950560   0.00000000 
 30.09460187   0.27419065   0.71611200  -0.00157820  -0.00048069   0.06714290   0.00000000 
 29.81745436   0.33285415   0.71897700  -0.00192220  -0.00048984   0.08134430   0.00000000 
 29.53297965   0.37720480   0.72132900  -0.00218968  -0.00049918   0.09235190   0.00000000 
 30.24041345   0.31248962   0.71962500  -0.00177005  -0.00047739   0.07525160   0.00000000 
 29.03402064   0.38135638   0.71908000  -0.00227591  -0.00051401   0.09545000   0.00000000 
 29.26869418   0.38383627   0.72056300  -0.00225827  -0.00050713   0.09493690   0.00000000 
 28.79863274   0.43903128   0.72374700  -0.00261213  -0.00052299   0.10898500   0.00000000 
 28.56397727   0.48967649   0.72838400  -0.00290461  -0.00053213   0.12044200   0.00000000 
 28.35034631   0.48768503   0.72708600  -0.00293141  -0.00053869   0.12137500   0.00000000 
 28.21190253   0.53211697   0.73201800  -0.00317265  -0.00054502   0.13072200   0.00000000 
 27.07977861   0.36234359   0.70605500  -0.00244705  -0.00057390   0.10071700   0.00000000 
 27.00750579   0.29148656   0.69908000  -0.00201198  -0.00057388   0.08300840   0.00000000 
 26.99498708   0.06678924   0.68731200  -0.00047549  -0.00057017   0.01973760   0.00000000 
 28.01128860   0.56004767   0.73482200  -0.00334210  -0.00055275   0.13711400   0.00000000 
 27.81302177   0.53488645   0.73047300  -0.00326226  -0.00055786   0.13383700   0.00000000 
 27.33287778   0.48047900   0.72095400  -0.00307860  -0.00057070   0.12612200   0.00000000 
 27.56597911   0.51544194   0.72667200  -0.00321458  -0.00056481   0.13173600   0.00000000 
 26.92915596   0.00000000   0.68618200   0.00000000  -0.00057202  -0.00002575   0.00000000 
 26.87819163   0.13923654   0.68869300  -0.00099320  -0.00057461   0.04108920   0.00000000 
 26.87703439   0.22633533   0.69335500  -0.00159538  -0.00057627   0.06591730   0.00000000 
 27.10558205   0.44117325   0.71488600  -0.00290556  -0.00057625   0.11909200   0.00000000 
 36.55432423   0.42474953   0.75564600  -0.00170665  -0.00032158   0.07572260   0.00000000 
 36.30108104   0.42382898   0.75466300  -0.00172297  -0.00032729   0.07629640   0.00000000 
 36.64988459   0.50220938   0.76228600  -0.00196672  -0.00032075   0.08701820   0.00000000 
 36.80881664   0.43239770   0.75713100  -0.00171427  -0.00031609   0.07611600   0.00000000 
 36.92309073   0.28033677   0.74785300  -0.00114211  -0.00031172   0.05102170   0.00000000 
 36.96051685   0.36426429   0.75286700  -0.00145779  -0.00031175   0.06496730   0.00000000 
 37.70848815   0.00000000   0.74382700   0.00000000  -0.00029339   0.00001380   0.00000000 
 37.37001901   0.10019963   0.74337400  -0.00040830  -0.00030080   0.01834440   0.00000000 
 37.06671683   0.22674076   0.74594000  -0.00092519  -0.00030801   0.04144180   0.00000000 
 37.21924160   0.17108616   0.74452500  -0.00069784  -0.00030438   0.03125400   0.00000000 
 37.58588343   0.08738595   0.74402600  -0.00035291  -0.00029611   0.01587420   0.00000000 
 31.74565946   0.49994844   0.74388900  -0.00247977  -0.00044086   0.10583700   0.00000000 
 31.96415881   0.50993867   0.74584500  -0.00249258  -0.00043528   0.10657200   0.00000000 
 32.20355805   0.50468534   0.74625700  -0.00244103  -0.00042879   0.10457500   0.00000000 
 33.33814387   0.23586576   0.73029200  -0.00114883  -0.00039466   0.05018100   0.00000000 
 33.76704544   0.18265745   0.72995000  -0.00087687  -0.00038363   0.03843270   0.00000000 
 33.99419274   0.19824050   0.73162900  -0.00093915  -0.00037829   0.04127040   0.00000000 
 33.56742312   0.23785462   0.73146200  -0.00114481  -0.00038903   0.05007360   0.00000000 
 33.19295211   0.31771326   0.73441900  -0.00153629  -0.00039944   0.06689960   0.00000000 
 32.42293670   0.49797379   0.74644500  -0.00238701  -0.00042285   0.10250300   0.00000000 
 32.55368717   0.42788538   0.74024100  -0.00208108  -0.00041770   0.08975610   0.00000000 
 32.99491675   0.34835111   0.73567800  -0.00169015  -0.00040482   0.07340210   0.00000000 
 32.75672506   0.35988223   0.73547600  -0.00176281  -0.00041111   0.07638760   0.00000000 
 36.11904555   0.50234105   0.76051300  -0.00201442  -0.00033275   0.08888270   0.00000000 
 35.86529356   0.48908938   0.75847000  -0.00199190  -0.00033834   0.08779660   0.00000000 
 35.60489444   0.45935747   0.75499000  -0.00190965  -0.00034380   0.08412630   0.00000000 
 35.17767239   0.35492455   0.74538900  -0.00154509  -0.00035204   0.06816570   0.00000000 
 35.38135574   0.40981438   0.75016800  -0.00174430  -0.00034815   0.07691560   0.00000000 
 33.97951392   0.32928379   0.73866800  -0.00152714  -0.00038011   0.06684580   0.00000000 
 35.01642872   0.41828477   0.74943100  -0.00180732  -0.00035686   0.07947060   0.00000000 
 34.20462465   0.34456418   0.74066900  -0.00157545  -0.00037499   0.06901740   0.00000000 
 34.80455353   0.36936254   0.74489500  -0.00163138  -0.00036103   0.07176420   0.00000000 
 34.66828455   0.30382197   0.74000100  -0.00136949  -0.00036333   0.06021920   0.00000000 
 34.43801547   0.34896962   0.74195300  -0.00157608  -0.00036944   0.06916640   0.00000000 
 30.41696283   0.33443213   0.72224500  -0.00186660  -0.00047290   0.07949580   0.00000000 
 30.91964188   0.33815540   0.72509100  -0.00183427  -0.00045904   0.07836450   0.00000000 
 30.70877005   0.32375968   0.72291200  -0.00178241  -0.00046458   0.07615530   0.00000000 
 31.06680337   0.36732586   0.72818600  -0.00196292  -0.00045575   0.08385540   0.00000000 
 31.45542330   0.37943530   0.73106800  -0.00197973  -0.00044549   0.08485080   0.00000000 
 31.24566817   0.37406034   0.72961600  -0.00197642  -0.00045104   0.08454880   0.00000000 
 31.66743421   0.46229952   0.73968600  -0.00233033  -0.00044186   0.09970160   0.00000000 
 31.48263558   0.44159503   0.73684100  -0.00226176  -0.00044626   0.09670820   0.00000000 
 31.51388427   0.53529548   0.74681400  -0.00265479  -0.00044817   0.11289500   0.00000000 
 29.32220782   0.44577033   0.72711900  -0.00256775  -0.00050754   0.10762900   0.00000000 
 30.02081050   0.35876515   0.72221800  -0.00203541  -0.00048463   0.08626870   0.00000000 
 29.53114787   0.44891907   0.72848500  -0.00255283  -0.00050146   0.10720900   0.00000000 
 29.75565041   0.40200018   0.72481700  -0.00228876  -0.00049344   0.09655450   0.00000000 
 30.18919636   0.39556758   0.72637800  -0.00220189  -0.00048085   0.09331450   0.00000000 
 29.03836820   0.45252106   0.72644300  -0.00264390  -0.00051623   0.11054100   0.00000000 
 28.78696357   0.50013951   0.73073300  -0.00291766  -0.00052571   0.12116500   0.00000000 
 28.58008445   0.53865938   0.73459500  -0.00313538  -0.00053381   0.12961300   0.00000000 
 28.38161995   0.55616745   0.73599400  -0.00325267  -0.00054076   0.13409100   0.00000000 
 28.18348336   0.58815907   0.73950800  -0.00343447  -0.00054875   0.14076400   0.00000000 
 26.81256861   0.29593064   0.69818700  -0.00206624  -0.00058020   0.08502120   0.00000000 
 26.89336855   0.42632297   0.71191800  -0.00285904  -0.00058252   0.11692300   0.00000000 
 26.85241611   0.36299195   0.70472600  -0.00248658  -0.00058124   0.10208700   0.00000000 
 26.79974953   0.06862071   0.68595500  -0.00049467  -0.00057633   0.02046990   0.00000000 
 28.00847940   0.62369010   0.74389000  -0.00362303  -0.00055630   0.14771300   0.00000000 
 27.82749663   0.60081930   0.73975900  -0.00356339  -0.00056089   0.14528300   0.00000000 
 27.61942002   0.58025830   0.73585600  -0.00351515  -0.00056654   0.14328000   0.00000000 
 27.07949281   0.51433028   0.72404300  -0.00330622  -0.00058068   0.13462100   0.00000000 